God Rules Over Mankind, Animals, Cosmos and Such
   32
    1PA1     N1    1   2.114   2.568   2.588
    1PA1     H2    2   2.076   2.502   2.657
    1PA1     N3    3   2.347   2.436   2.478
    1PA1     C4    4   2.112   2.506   2.455
    1PA1     H5    5   2.134   2.584   2.381
    1PA1     H6    6   2.011   2.469   2.434
    1PA1     C7    7   2.212   2.391   2.438
    1PA1     H8    8   2.217   2.357   2.335
    1PA1     H9    9   2.184   2.306   2.502
    1PA1    C10   10   2.353   2.494   2.613
    1PA1    H11   11   2.453   2.530   2.635
    1PA1    H12   12   2.329   2.414   2.685
    1PA1    C13   13   2.250   2.607   2.627
    1PA1    H14   14   2.280   2.691   2.564
    1PA1    H15   15   2.249   2.642   2.731
    1PA1    C16   16   2.620   2.591   2.440
    1PA1    C17   17   2.590   2.454   2.441
    1PA1    C18   18   2.692   2.362   2.466
    1PA1    C19   19   2.823   2.406   2.493
    1PA1    C20   20   2.852   2.543   2.492
    1PA1    C21   21   2.751   2.635   2.464
    1PA1    H22   22   2.543   2.664   2.418
    1PA1    H23   23   2.670   2.256   2.465
    1PA1    H24   24   2.953   2.576   2.512
    1PA1    C25   25   2.936   2.314   2.523
    1PA1    O26   26   3.049   2.348   2.545
    1PA1    C27   27   2.454   2.402   2.402
    1PA1    O28   28   2.446   2.333   2.299
    1PA1    C29   29   2.773   2.782   2.460
    1PA1    O30   30   2.690   2.865   2.435
    1PA1   CL31   31   2.943   2.838   2.495
    1PA1   CL32   32   2.896   2.137   2.525
   5.00000   5.00000   5.00000
