GROwing Monsters And Cloning Shrimps
   34
    1PIP     N1    1   2.500   2.353   2.482
    1PIP     H2    2   2.500   2.339   2.381
    1PIP     N3    3   2.500   2.647   2.518
    1PIP     H4    4   2.500   2.661   2.619
    1PIP     C5    5   2.377   2.426   2.524
    1PIP     H6    6   2.372   2.424   2.633
    1PIP     H7    7   2.290   2.372   2.485
    1PIP     C8    8   2.377   2.574   2.476
    1PIP     H9    9   2.290   2.628   2.515
    1PIP    H10   10   2.372   2.576   2.367
    1PIP    C11   11   2.623   2.574   2.476
    1PIP    H12   12   2.710   2.628   2.515
    1PIP    H13   13   2.628   2.576   2.367
    1PIP    C14   14   2.623   2.426   2.524
    1PIP    H15   15   2.628   2.424   2.633
    1PIP    H16   16   2.710   2.372   2.485
    1TMC     C1    1   2.567   2.377   2.500
    1TMC     C2    2   2.427   2.380   2.500
    1TMC     C3    3   2.360   2.504   2.500
    1TMC     C4    4   2.433   2.623   2.500
    1TMC     C5    5   2.573   2.619   2.500
    1TMC     C6    6   2.640   2.497   2.500
    1TMC     H7    7   2.620   2.283   2.500
    1TMC     H8    8   2.252   2.505   2.500
    1TMC     H9    9   2.628   2.713   2.500
    1TMC    C10   10   2.369   2.757   2.500
    1TMC    O11   11   2.429   2.862   2.500
    1TMC    C12   12   2.342   2.258   2.500
    1TMC    O13   13   2.222   2.258   2.500
    1TMC    C14   14   2.788   2.484   2.500
    1TMC    O15   15   2.849   2.381   2.500
    1TMC   CL16   16   2.881   2.640   2.500
    1TMC   CL17   17   2.189   2.760   2.500
    1TMC   CL18   18   2.431   2.101   2.500
   5.00000   5.00000   5.00000
