Guyana Rwanda Oman Macau Angola Cameroon Senegal
   18
    1TMC     C1    1   2.567   2.377   2.500
    1TMC     C2    2   2.427   2.380   2.500
    1TMC     C3    3   2.360   2.504   2.500
    1TMC     C4    4   2.433   2.623   2.500
    1TMC     C5    5   2.573   2.619   2.500
    1TMC     C6    6   2.640   2.497   2.500
    1TMC     H7    7   2.620   2.283   2.500
    1TMC     H8    8   2.252   2.505   2.500
    1TMC     H9    9   2.628   2.713   2.500
    1TMC    C10   10   2.369   2.757   2.500
    1TMC    O11   11   2.429   2.862   2.500
    1TMC    C12   12   2.342   2.258   2.500
    1TMC    O13   13   2.222   2.258   2.500
    1TMC    C14   14   2.788   2.484   2.500
    1TMC    O15   15   2.849   2.381   2.500
    1TMC   CL16   16   2.881   2.640   2.500
    1TMC   CL17   17   2.189   2.760   2.500
    1TMC   CL18   18   2.431   2.101   2.500
   5.00000   5.00000   5.00000
