; Topology generated using molcal v1.0  
; For use with CGenFF force-field version 4.6
;

;
[ moleculetype ]
; Name            nrexcl
TMC               3
;
[ atoms ]
;   nr       type  resnr residue  atom   cgnr     charge       mass  typeB    chargeB      massB
; residue   1 TMC rtp TMC  q -0.1
     1     CG2R61      1    TMC     C1      1     -0.2549518296     12.011   ; qtot -0.035
     2     CG2R61      1    TMC     C2      2     0.1383216367     12.011   ; qtot -0.004
     3     CG2R61      1    TMC     C3      3     -0.2515857616     12.011   ; qtot -0.035
     4     CG2R61      1    TMC     C4      4     0.1327006740     12.011   ; qtot -0.004
     5     CG2R61      1    TMC     C5      5     -0.2505732346     12.011   ; qtot -0.035
     6     CG2R61      1    TMC     C6      6     0.1360953908     12.011   ; qtot -0.004
     7      HGR61      1    TMC     H7      7      0.2248223669      1.008   ; qtot 0.115
     8      HGR61      1    TMC     H8      8      0.2235403946      1.008   ; qtot 0.115
     9      HGR61      1    TMC     H9      9      0.2240913122      1.008   ; qtot 0.115
    10      CG2O5      1    TMC    C10     10      0.5542413508     12.011   ; qtot 0.227
    11      OG2D1      1    TMC    O11     11     -0.4868615193    15.9994   ; qtot -0.349
    12      CG2O5      1    TMC    C12     12      0.5522040809     12.011   ; qtot 0.227
    13      OG2D1      1    TMC    O13     13     -0.4864168136    15.9994   ; qtot -0.349
    14      CG2O5      1    TMC    C14     14      0.5528363832     12.011   ; qtot 0.227
    15      OG2D1      1    TMC    O15     15     -0.4863563736    15.9994   ; qtot -0.349
    16      CLGA1      1    TMC   CL16     16     -0.1742165743     35.453   ; qtot -0.004
    17      CLGA1      1    TMC   CL17     17     -0.1738344298     35.453   ; qtot -0.004
    18      CLGA1      1    TMC   CL18     18     -0.1740570537     35.453   ; qtot -0.004

[ bonds ]
;  ai    aj funct            c0            c1            c2            c3
    1     2     1
    1     6     1
    1     7     1
    2     3     1
    2    12     1
    3     4     1
    3     8     1
    4     5     1
    4    10     1
    5     6     1
    5     9     1
    6    14     1
   10    11     1
   10    17     1
   12    13     1
   12    18     1
   14    15     1
   14    16     1

[ pairs ]
;  ai    aj funct            c0            c1            c2            c3
    1     4     1
    1     8     1
    1     9     1
    1    13     1
    1    15     1
    1    16     1
    1    18     1
    2     5     1
    2    10     1
    2    14     1
    3     6     1
    3     7     1
    3     9     1
    3    11     1
    3    13     1
    3    17     1
    3    18     1
    4    12     1
    4    14     1
    5     7     1
    5     8     1
    5    11     1
    5    15     1
    5    16     1
    5    17     1
    6    10     1
    6    12     1
    7    12     1
    7    14     1
    8    10     1
    8    12     1
    9    10     1
    9    14     1

[ angles ]
;  ai    aj    ak funct            c0            c1            c2            c3
    2     1     6     5
    2     1     7     5
    6     1     7     5
    1     2     3     5
    1     2    12     5
    3     2    12     5
    2     3     4     5
    2     3     8     5
    4     3     8     5
    3     4     5     5
    3     4    10     5
    5     4    10     5
    4     5     6     5
    4     5     9     5
    6     5     9     5
    1     6     5     5
    1     6    14     5
    5     6    14     5
    4    10    11     5
    4    10    17     5
   11    10    17     5
    2    12    13     5
    2    12    18     5
   13    12    18     5
    6    14    15     5
    6    14    16     5
   15    14    16     5

[ dihedrals ]
;  ai    aj    ak    al funct            c0            c1            c2            c3            c4            c5
    6     1     2     3     9
    6     1     2    12     9
    7     1     2     3     9
    7     1     2    12     9
    2     1     6     5     9
    2     1     6    14     9
    7     1     6     5     9
    7     1     6    14     9
    1     2     3     4     9
    1     2     3     8     9
   12     2     3     4     9
   12     2     3     8     9
    1     2    12    13     9
    1     2    12    18     9
    3     2    12    13     9
    3     2    12    18     9
    2     3     4     5     9
    2     3     4    10     9
    8     3     4     5     9
    8     3     4    10     9
    3     4     5     6     9
    3     4     5     9     9
   10     4     5     6     9
   10     4     5     9     9
    3     4    10    11     9
    3     4    10    17     9
    5     4    10    11     9
    5     4    10    17     9
    4     5     6     1     9
    4     5     6    14     9
    9     5     6     1     9
    9     5     6    14     9
    1     6    14    15     9
    1     6    14    16     9
    5     6    14    15     9
    5     6    14    16     9

[ dihedrals ]
;  ai    aj    ak    al funct            c0            c1            c2            c3            c4            c5
   10     4    11    17     2
   12     2    13    18     2
   14     6    15    16     2


