; Topology generated using molcal v1.0  
; For use with CGenFF force-field version 4.6
;
; Include forcefield parameters
#include "./charmm36.ff/forcefield.itp"
;
; Include ligand specific parameters
# include "./charmm36.ff/PIP_ffbonded.itp"
;
[ moleculetype ]
; Name            nrexcl
Other               3
;
[ atoms ]
;   nr       type  resnr residue  atom   cgnr     charge       mass  typeB    chargeB      massB
; residue   1 PIP rtp PIP  q +0.0
     1      NG311      1    PIP     N1      1     -0.792     14.007   ; qtot -0.792
     2     HGPAM1      1    PIP     H2      2       0.36      1.008   ; qtot 0.36
     3      NG311      1    PIP     N3      3     -0.792     14.007   ; qtot -0.792
     4     HGPAM1      1    PIP     H4      4       0.36      1.008   ; qtot 0.36
     5      CG321      1    PIP     C5      5      0.036     12.011   ; qtot 0.036
     6       HGA2      1    PIP     H6      6       0.09      1.008   ; qtot 0.09
     7       HGA2      1    PIP     H7      7       0.09      1.008   ; qtot 0.09
     8      CG321      1    PIP     C8      8      0.036     12.011   ; qtot 0.036
     9       HGA2      1    PIP     H9      9       0.09      1.008   ; qtot 0.09
    10       HGA2      1    PIP    H10     10       0.09      1.008   ; qtot 0.09
    11      CG321      1    PIP    C11     11      0.036     12.011   ; qtot 0.036
    12       HGA2      1    PIP    H12     12       0.09      1.008   ; qtot 0.09
    13       HGA2      1    PIP    H13     13       0.09      1.008   ; qtot 0.09
    14      CG321      1    PIP    C14     14      0.036     12.011   ; qtot 0.036
    15       HGA2      1    PIP    H15     15       0.09      1.008   ; qtot 0.09
    16       HGA2      1    PIP    H16     16       0.09      1.008   ; qtot 0.09

[ bonds ]
;  ai    aj funct            c0            c1            c2            c3
    1     2     1
    1     5     1
    1    14     1
    3     4     1
    3     8     1
    3    11     1
    5     6     1
    5     7     1
    5     8     1
    8     9     1
    8    10     1
   11    12     1
   11    13     1
   11    14     1
   14    15     1
   14    16     1

[ pairs ]
;  ai    aj funct            c0            c1            c2            c3
    1     3     1
    1     9     1
    1    10     1
    1    12     1
    1    13     1
    2     6     1
    2     7     1
    2     8     1
    2    11     1
    2    15     1
    2    16     1
    3     6     1
    3     7     1
    3    15     1
    3    16     1
    4     5     1
    4     9     1
    4    10     1
    4    12     1
    4    13     1
    4    14     1
    5    11     1
    5    15     1
    5    16     1
    6     9     1
    6    10     1
    6    14     1
    7     9     1
    7    10     1
    7    14     1
    8    12     1
    8    13     1
    8    14     1
    9    11     1
   10    11     1
   12    15     1
   12    16     1
   13    15     1
   13    16     1

[ angles ]
;  ai    aj    ak funct            c0            c1            c2            c3
    2     1     5     5
    2     1    14     5
    5     1    14     5
    4     3     8     5
    4     3    11     5
    8     3    11     5
    1     5     6     5
    1     5     7     5
    1     5     8     5
    6     5     7     5
    6     5     8     5
    7     5     8     5
    3     8     5     5
    3     8     9     5
    3     8    10     5
    5     8     9     5
    5     8    10     5
    9     8    10     5
    3    11    12     5
    3    11    13     5
    3    11    14     5
   12    11    13     5
   12    11    14     5
   13    11    14     5
    1    14    11     5
    1    14    15     5
    1    14    16     5
   11    14    15     5
   11    14    16     5
   15    14    16     5

[ dihedrals ]
;  ai    aj    ak    al funct            c0            c1            c2            c3            c4            c5
    2     1     5     6     9
    2     1     5     7     9
    2     1     5     8     9
   14     1     5     6     9
   14     1     5     7     9
   14     1     5     8     9
    2     1    14    11     9
    2     1    14    15     9
    2     1    14    16     9
    5     1    14    11     9
    5     1    14    15     9
    5     1    14    16     9
    4     3     8     5     9
    4     3     8     9     9
    4     3     8    10     9
   11     3     8     5     9
   11     3     8     9     9
   11     3     8    10     9
    4     3    11    12     9
    4     3    11    13     9
    4     3    11    14     9
    8     3    11    12     9
    8     3    11    13     9
    8     3    11    14     9
    1     5     8     3     9
    1     5     8     9     9
    1     5     8    10     9
    6     5     8     3     9
    6     5     8     9     9
    6     5     8    10     9
    7     5     8     3     9
    7     5     8     9     9
    7     5     8    10     9
    3    11    14     1     9
    3    11    14    15     9
    3    11    14    16     9
   12    11    14     1     9
   12    11    14    15     9
   12    11    14    16     9
   13    11    14     1     9
   13    11    14    15     9
   13    11    14    16     9



; Include Position restraint file
#ifdef POSRES
#include "posre.itp"
#endif

; Include water topology
#include "./charmm36.ff/tip3p.itp"

#ifdef POSRES_WATER
; Position restraint for each water oxygen
[ position_restraints ]
;  i funct       fcx        fcy        fcz
   1    1       1000       1000       1000
#endif

; Include topology for ions
#include "./charmm36.ff/ions.itp"

[ system ]
; Name
    Ligand

[ molecules ]
; Compound        #mols
Other           1
