; Topology generated using molcal v1.0  
; For use with CGenFF force-field version 4.6
;
; Include forcefield parameters
#include "./charmm36.ff/forcefield.itp"
;
; Include ligand specific parameters
# include "./charmm36.ff/PA1_ffbonded.itp"
;
[ moleculetype ]
; Name            nrexcl
Other               3
;
[ atoms ]
;   nr       type  resnr residue  atom   cgnr     charge       mass  typeB    chargeB      massB
; residue   1 PA1 rtp PA1  q -0.1
     1      NG311      1    PA1     N1      1     -0.796     14.007   ; qtot -0.796
     2     HGPAM1      1    PA1     H2      2       0.36      1.008   ; qtot 0.36
     3      NG2S0      1    PA1     N3      3      -0.62     14.007   ; qtot -0.62
     4      CG321      1    PA1     C4      4      0.098     12.011   ; qtot 0.098
     5       HGA2      1    PA1     H5      5       0.09      1.008   ; qtot 0.09
     6       HGA2      1    PA1     H6      6       0.09      1.008   ; qtot 0.09
     7      CG321      1    PA1     C7      7      0.143     12.011   ; qtot 0.143
     8       HGA2      1    PA1     H8      8       0.09      1.008   ; qtot 0.09
     9       HGA2      1    PA1     H9      9       0.09      1.008   ; qtot 0.09
    10      CG321      1    PA1    C10     10      0.143     12.011   ; qtot 0.143
    11       HGA2      1    PA1    H11     11       0.09      1.008   ; qtot 0.09
    12       HGA2      1    PA1    H12     12       0.09      1.008   ; qtot 0.09
    13      CG321      1    PA1    C13     13      0.098     12.011   ; qtot 0.098
    14       HGA2      1    PA1    H14     14       0.09      1.008   ; qtot 0.09
    15       HGA2      1    PA1    H15     15       0.09      1.008   ; qtot 0.09
    16     CG2R61      1    PA1    C16     16      0.016     12.011   ; qtot 0.016
    17     CG2R61      1    PA1    C17     17     -0.181     12.011   ; qtot -0.181
    18     CG2R61      1    PA1    C18     18      0.016     12.011   ; qtot 0.016
    19     CG2R61      1    PA1    C19     19 0.00300001     12.011   ; qtot 0.003
    20     CG2R61      1    PA1    C20     20     -0.035     12.011   ; qtot -0.035
    21     CG2R61      1    PA1    C21     21 0.00300001     12.011   ; qtot 0.003
    22      HGR61      1    PA1    H22     22      0.115      1.008   ; qtot 0.115
    23      HGR61      1    PA1    H23     23      0.115      1.008   ; qtot 0.115
    24      HGR61      1    PA1    H24     24      0.115      1.008   ; qtot 0.115
    25      CG2O5      1    PA1    C25     25      0.227     12.011   ; qtot 0.227
    26      OG2D1      1    PA1    O26     26     -0.349    15.9994   ; qtot -0.349
    27      CG2O1      1    PA1    C27     27       0.32     12.011   ; qtot 0.32
    28      OG2D1      1    PA1    O28     28     -0.481    15.9994   ; qtot -0.481
    29      CG2O5      1    PA1    C29     29      0.227     12.011   ; qtot 0.227
    30      OG2D1      1    PA1    O30     30     -0.349    15.9994   ; qtot -0.349
    31      CLGA1      1    PA1   CL31     31     -0.004     35.453   ; qtot -0.004
    32      CLGA1      1    PA1   CL32     32     -0.004     35.453   ; qtot -0.004
    33        LPH      1    PA1    LP1     31       0.05          0   ; qtot 0.05
    34        LPH      1    PA1    LP2     32       0.05          0   ; qtot 0.05

[ bonds ]
;  ai    aj funct            c0            c1            c2            c3
    1     2     1
    1     4     1
    1    13     1
    3     7     1
    3    10     1
    3    27     1
    4     5     1
    4     6     1
    4     7     1
    7     8     1
    7     9     1
   10    11     1
   10    12     1
   10    13     1
   13    14     1
   13    15     1
   16    17     1
   16    21     1
   16    22     1
   17    18     1
   17    27     1
   18    19     1
   18    23     1
   19    20     1
   19    25     1
   20    21     1
   20    24     1
   21    29     1
   25    26     1
   25    32     1
   27    28     1
   29    30     1
   29    31     1

[ pairs ]
;  ai    aj funct            c0            c1            c2            c3
    1     3     1
    1     8     1
    1     9     1
    1    11     1
    1    12     1
    2     5     1
    2     6     1
    2     7     1
    2    10     1
    2    14     1
    2    15     1
    3     5     1
    3     6     1
    3    14     1
    3    15     1
    3    16     1
    3    18     1
    4    10     1
    4    14     1
    4    15     1
    4    27     1
    5     8     1
    5     9     1
    5    13     1
    6     8     1
    6     9     1
    6    13     1
    7    11     1
    7    12     1
    7    13     1
    7    17     1
    7    28     1
    8    10     1
    8    27     1
    9    10     1
    9    27     1
   10    17     1
   10    28     1
   11    14     1
   11    15     1
   11    27     1
   12    14     1
   12    15     1
   12    27     1
   13    27     1
   16    19     1
   16    23     1
   16    24     1
   16    28     1
   16    30     1
   16    31     1
   17    20     1
   17    25     1
   17    29     1
   18    21     1
   18    22     1
   18    24     1
   18    26     1
   18    28     1
   18    32     1
   19    27     1
   19    29     1
   20    22     1
   20    23     1
   20    26     1
   20    30     1
   20    31     1
   20    32     1
   21    25     1
   21    27     1
   22    27     1
   22    29     1
   23    25     1
   23    27     1
   24    25     1
   24    29     1
   33    16     1
   33    20     1
   34    18     1
   34    20     1

[ angles ]
;  ai    aj    ak funct            c0            c1            c2            c3
    2     1     4     5
    2     1    13     5
    4     1    13     5
    7     3    10     5
    7     3    27     5
   10     3    27     5
    1     4     5     5
    1     4     6     5
    1     4     7     5
    5     4     6     5
    5     4     7     5
    6     4     7     5
    3     7     4     5
    3     7     8     5
    3     7     9     5
    4     7     8     5
    4     7     9     5
    8     7     9     5
    3    10    11     5
    3    10    12     5
    3    10    13     5
   11    10    12     5
   11    10    13     5
   12    10    13     5
    1    13    10     5
    1    13    14     5
    1    13    15     5
   10    13    14     5
   10    13    15     5
   14    13    15     5
   17    16    21     5
   17    16    22     5
   21    16    22     5
   16    17    18     5
   16    17    27     5
   18    17    27     5
   17    18    19     5
   17    18    23     5
   19    18    23     5
   18    19    20     5
   18    19    25     5
   20    19    25     5
   19    20    21     5
   19    20    24     5
   21    20    24     5
   16    21    20     5
   16    21    29     5
   20    21    29     5
   19    25    26     5
   19    25    32     5
   26    25    32     5
    3    27    17     5
    3    27    28     5
   17    27    28     5
   21    29    30     5
   21    29    31     5
   30    29    31     5

[ dihedrals ]
;  ai    aj    ak    al funct            c0            c1            c2            c3            c4            c5
    2     1     4     5     9
    2     1     4     6     9
    2     1     4     7     9
   13     1     4     5     9
   13     1     4     6     9
   13     1     4     7     9
    2     1    13    10     9
    2     1    13    14     9
    2     1    13    15     9
    4     1    13    10     9
    4     1    13    14     9
    4     1    13    15     9
   10     3     7     4     9
   10     3     7     8     9
   10     3     7     9     9
   27     3     7     4     9
   27     3     7     8     9
   27     3     7     9     9
    7     3    10    11     9
    7     3    10    12     9
    7     3    10    13     9
   27     3    10    11     9
   27     3    10    12     9
   27     3    10    13     9
    7     3    27    17     9
    7     3    27    28     9
   10     3    27    17     9
   10     3    27    28     9
    1     4     7     3     9
    1     4     7     8     9
    1     4     7     9     9
    5     4     7     3     9
    5     4     7     8     9
    5     4     7     9     9
    6     4     7     3     9
    6     4     7     8     9
    6     4     7     9     9
    3    10    13     1     9
    3    10    13    14     9
    3    10    13    15     9
   11    10    13     1     9
   11    10    13    14     9
   11    10    13    15     9
   12    10    13     1     9
   12    10    13    14     9
   12    10    13    15     9
   21    16    17    18     9
   21    16    17    27     9
   22    16    17    18     9
   22    16    17    27     9
   17    16    21    20     9
   17    16    21    29     9
   22    16    21    20     9
   22    16    21    29     9
   16    17    18    19     9
   16    17    18    23     9
   27    17    18    19     9
   27    17    18    23     9
   16    17    27     3     9
   16    17    27    28     9
   18    17    27     3     9
   18    17    27    28     9
   17    18    19    20     9
   17    18    19    25     9
   23    18    19    20     9
   23    18    19    25     9
   18    19    20    21     9
   18    19    20    24     9
   25    19    20    21     9
   25    19    20    24     9
   18    19    25    26     9
   18    19    25    32     9
   20    19    25    26     9
   20    19    25    32     9
   19    20    21    16     9
   19    20    21    29     9
   24    20    21    16     9
   24    20    21    29     9
   16    21    29    30     9
   16    21    29    31     9
   20    21    29    30     9
   20    21    29    31     9

[ dihedrals ]
;  ai    aj    ak    al funct            c0            c1            c2            c3            c4            c5
   25    19    26    32     2
   27    17     3    28     2
   29    21    30    31     2

[ exclusions ]
33 31 29 30 16 20 21 
34 32 25 26 18 20 19 

[ virtual_sites3 ]
; Site   from        funct theta d
   33    31    29    30     3 180.00   0.16
   34    32    25    26     3 180.00   0.16

; Include Position restraint file
#ifdef POSRES
#include "posre.itp"
#endif

; Include water topology
#include "./charmm36.ff/tip3p.itp"

#ifdef POSRES_WATER
; Position restraint for each water oxygen
[ position_restraints ]
;  i funct       fcx        fcy        fcz
   1    1       1000       1000       1000
#endif

; Include topology for ions
#include "./charmm36.ff/ions.itp"

[ system ]
; Name
    Ligand

[ molecules ]
; Compound        #mols
Other           1
